# vtk DataFile Version 3.0
vtk output
ASCII
DATASET POLYDATA
POINTS 1993 float
-0.306916 31.1586 -5.52748 -1.28645 31.0379 -5.45412 0.566826 31.3905 -5.5462 
-2.44006 31.871 -5.58864 -3.14507 32.323 -5.383 2.48415 32.3285 -5.42017 
-1.97364 32.2743 -5.56414 -3.14715 32.9042 -5.50678 1.33481 32.5818 -5.55618 
-3.01696 33.5548 -5.52264 -0.232391 34.2384 -5.55666 1.6275 33.9142 -5.54786 
2.95178 33.9029 -5.52428 3.4156 33.6808 -5.50535 -2.93745 34.4723 -5.52494 
-3.59303 34.1271 -5.46366 -1.46156 34.4494 -5.54654 2.14424 34.1946 -5.36116 
2.16362 34.5636 -5.40431 -2.82656 35.6001 -5.54965 -3.54336 39.374 -5.4578 
-3.58592 44.0322 -5.46044 0.15178 30.7189 -5.53139 -1.70191 30.47 -5.21266 
0.895998 31.0522 -5.36364 2.59129 31.6255 -5.56777 -2.2191 31.0937 -5.26187 
3.16605 31.9621 -5.51023 -3.31051 31.5417 -4.99477 3.50459 32.322 -5.35687 
3.18248 32.7193 -5.56076 -3.86878 33.0467 -5.18614 3.69208 33.0949 -5.52703 
-3.83192 33.5985 -5.19799 3.45088 34.5161 -5.56878 1.24643 34.4616 -5.40619 
0.513763 34.5658 -5.18102 1.31512 34.7054 -5.22651 1.65085 34.9408 -5.1715 
3.83965 35.044 -5.37734 -2.61867 34.9277 -5.3504 -1.94667 35.1486 -5.27435 
-3.69362 34.9444 -5.23986 3.59179 35.7502 -5.50311 2.6631 35.4655 -5.32255 
-2.40036 35.6386 -5.46578 2.59966 35.881 -5.20917 -4.04055 35.9848 -5.1848 
3.71153 35.9285 -5.36885 -2.95041 36.1254 -5.25592 -2.87919 39.1807 -5.39776 
3.57461 39.2024 -5.30184 3.85281 39.3449 -5.41814 -2.80287 39.4074 -5.5128 
-2.42076 39.6213 -5.25235 -3.8179 39.7879 -5.24543 3.21875 39.4534 -5.27332 
3.94778 39.9388 -5.33613 -2.75183 40.0412 -5.28436 3.2282 40.3932 -5.22703 
-3.22586 40.6153 -5.47287 -3.92698 40.5548 -5.26646 3.96877 40.7339 -5.38486 
-3.84192 41.3448 -5.2561 -3.25209 41.2868 -5.23693 4.02709 41.1913 -5.21037 
3.89288 41.9694 -5.22346 -4.02324 41.8441 -5.19488 -3.09147 42.3561 -5.21065 
-3.8187 42.7924 -5.35164 -3.44547 42.5826 -5.41379 4.27978 42.843 -5.3552 
4.66798 43.0044 -5.20823 3.85308 42.7343 -5.28286 -3.08932 43.5498 -5.25209 
3.97611 43.3491 -5.24456 -3.79565 43.6489 -5.28736 4.27685 44.0472 -5.23159 
-3.12299 44.0873 -5.47927 3.93003 44.3163 -5.18369 -3.64076 44.5733 -5.33417 
-3.03433 44.949 -5.28728 4.26331 45.0624 -5.24412 -4.00381 45.3265 -5.26426 
-3.28207 45.2371 -5.48228 -3.25937 45.5873 -5.29648 -1.5634 30.2185 -4.90761 
1.05032 30.468 -5.30423 2.18418 30.7696 -5.25794 2.65848 31.155 -5.29029 
-2.80754 30.8154 -4.79534 -4.03973 32.6826 -4.88071 4.51099 34.7689 -5.22291 
-4.38627 34.6721 -4.89506 -4.44131 35.5602 -4.84779 4.44778 35.7802 -5.2449 
2.42374 35.9018 -4.89204 -4.64897 36.1159 -4.78207 -3.49415 36.4379 -4.55671 
-3.84121 39.0969 -4.68465 -3.68805 39.2342 -5.2422 -2.3462 39.3072 -5.14228 
-4.65967 39.4558 -4.69538 -4.63678 40.037 -4.69684 -2.34268 40.0657 -4.83208 
4.43602 40.7589 -5.30499 -4.69886 40.7558 -4.75295 3.07561 40.5358 -4.89644 
-4.59791 41.1607 -4.73646 4.30179 41.4823 -5.24128 3.79416 41.3767 -4.95716 
3.65589 42.0387 -4.93531 3.5812 43.0231 -4.82641 -4.81494 42.6589 -4.71296 
3.61934 43.6171 -4.95783 -2.81744 44.067 -5.18833 3.68502 44.17 -4.95016 
-4.60041 44.1173 -4.80188 -3.08058 44.4293 -5.32063 3.84923 44.6705 -4.97621 
4.37743 44.655 -5.19049 -4.55536 44.7076 -4.82368 4.59267 45.6153 -4.89237 
4.09285 45.6004 -4.96016 -3.02802 45.798 -4.96933 -3.72353 45.9121 -4.8032 
2.51106 30.5046 -4.94572 3.92899 31.9697 -5.18688 -3.97533 31.8071 -4.52402 
4.50128 33.121 -5.23793 -4.62561 33.2662 -4.64872 4.59716 33.8287 -5.15561 
-4.58337 34.0566 -4.79481 -5.13086 34.2896 -4.25488 -0.708866 34.5824 -5.19364 
-1.48518 34.9228 -5.18405 2.77685 36.2342 -4.34762 -4.40178 36.5682 -4.59543 
4.44398 39.2791 -5.2608 3.07189 39.4063 -4.80579 -2.81928 41.0881 -4.80853 
3.2753 40.9382 -4.52426 -3.05121 41.7486 -4.95786 -4.61168 41.7731 -4.64136 
4.62046 41.9188 -5.19491 3.66001 41.697 -4.68349 3.61171 42.5412 -4.59642 
-5.13908 43.1699 -4.20002 3.62934 43.7688 -4.56857 -2.96653 45.0254 -4.9743 
3.71458 44.4431 -4.68152 -2.84231 45.5016 -5.06951 3.88767 45.7515 -4.60072 
4.266 45.8714 -4.62601 -3.44228 45.9839 -4.60217 -0.645828 30.2424 -5.11708 
-3.61847 31.1459 -4.29688 4.86545 32.7478 -4.89534 -5.06225 32.9822 -3.97482 
5.14286 33.633 -4.64653 -5.01583 34.8245 -4.20876 -2.05268 35.5209 -4.76223 
-2.16461 35.9287 -5.1001 5.25297 36.0003 -4.3258 3.34267 36.2438 -4.43931 
-2.74235 36.2979 -4.57167 -2.97955 36.5824 -4.46906 -4.99979 36.6212 -4.3548 
-4.0751 37.7882 -4.54656 -4.528 38.3365 -4.48311 -4.20139 38.7402 -4.49506 
-2.77833 38.9336 -4.42775 -4.57938 39.1973 -4.57484 -2.55254 39.1119 -4.69242 
3.45644 39.0441 -4.44486 4.68698 40.404 -5.11024 -2.59191 40.634 -5.16216 
-5.24509 40.0901 -3.8677 3.57168 41.2714 -4.29177 3.77789 41.8768 -4.44629 
3.85609 44.3916 -4.43448 -5.02213 45.3138 -4.35188 -4.60159 45.9958 -3.75259 
-1.95345 30.0577 -4.02973 2.3423 30.1889 -4.244 -3.10524 30.2971 -3.97579 
-4.70397 32.0533 -4.05162 5.22704 32.7745 -4.37263 -0.143642 34.6623 -3.36631 
5.08076 35.66 -4.8127 -5.33659 35.6823 -3.98869 2.51919 36.0531 -4.19638 
4.69032 36.0974 -4.42056 4.76875 36.3406 -4.32167 3.05066 36.5366 -4.27096 
-2.5441 36.5702 -4.20729 5.06836 37.0725 -4.34463 -5.00544 37.2804 -4.23473 
-4.0746 37.2308 -4.39202 -2.8143 37.5136 -4.31328 3.18265 37.2318 -4.27303 
-2.81958 38.1137 -4.49438 4.88436 38.6797 -4.35562 -5.12406 38.2121 -4.19579 
5.42981 38.4388 -4.26934 3.25494 38.1382 -4.26724 -2.49901 38.6513 -4.2119 
-3.83945 38.705 -4.51513 -4.94529 38.7857 -4.19329 5.31513 38.9222 -4.29146 
3.26073 38.822 -4.27824 4.66301 38.8977 -4.41999 5.43339 39.1212 -4.33857 
3.06437 39.1061 -4.1289 -2.2461 39.3852 -4.40704 5.07401 39.8705 -4.88266 
-5.5816 40.5074 -3.6082 3.08854 40.5943 -4.00097 -5.51921 41.4988 -3.72951 
-3.00414 41.7757 -4.68798 5.02184 42.2358 -4.83534 -2.86031 42.1978 -4.72765 
4.50876 42.4507 -3.73428 -2.9125 43.0055 -4.85208 4.71684 43.118 -3.58971 
4.83967 43.8282 -4.97019 -5.42674 44.3158 -3.78456 4.99876 45.0529 -4.91251 
4.72019 45.9583 -4.18007 4.32173 45.8811 -4.19577 1.32805 30.1982 -4.91108 
3.76232 31.5613 -5.06395 -4.9642 32.3454 -3.74321 5.04783 34.3804 -4.8518 
-0.978851 34.6805 -4.09517 0.857849 34.7491 -3.64494 5.43711 37.4207 -4.21503 
-5.49987 36.5393 -3.9182 -2.35183 37.1254 -4.15511 -5.5159 37.356 -3.70181 
2.9046 37.2813 -3.92844 3.02003 38.036 -3.9388 5.01972 40.895 -4.8731 
-2.87974 41.2531 -4.26003 -5.47901 41.0001 -3.61628 4.91384 41.3491 -4.92572 
4.49045 43.5395 -3.77296 5.07776 44.265 -4.85546 4.7154 44.722 -3.61318 
-5.36114 45.5861 -3.58879 -3.07481 45.8043 -4.61256 -2.53723 30.0127 -3.66409 
-0.187378 30.0974 -3.85142 1.80794 30.1278 -3.88347 -3.67397 30.6994 -3.98346 
-4.64956 31.6741 -3.84045 5.11417 32.0847 -4.16916 5.68628 34.1495 -4.01438 
-5.38719 33.7792 -3.62816 -5.50322 34.3779 -3.6092 -5.47555 34.8247 -3.54782 
5.71756 35.7661 -4.09454 2.06299 35.4748 -3.83871 -5.57611 35.8546 -3.48867 
2.3671 35.9278 -3.21936 2.84586 36.7938 -3.78161 5.77652 37.5071 -3.97021 
-2.35735 37.9317 -4.20524 5.96532 38.1709 -3.89652 -5.83426 38.2836 -3.21823 
-5.47231 38.864 -3.68341 -2.25552 39.957 -4.31589 3.62762 41.0697 -3.7442 
5.1609 41.7954 -4.75004 -5.43986 42.0158 -3.70557 4.38812 41.6453 -3.72673 
5.85357 42.8373 -3.99703 -2.97037 43.2808 -4.66272 -5.5057 44.5223 -3.49297 
-2.94829 44.4743 -4.63743 -5.50793 45.0909 -3.62717 -3.4936 45.3013 -4.24547 
5.39268 45.5599 -4.21074 4.8091 45.4933 -3.69245 5.04457 45.9164 -3.42131 
-5.67183 33.2924 -3.14674 -2.04404 35.3371 -3.85585 1.40072 34.7896 -3.03843 
1.97487 35.3214 -3.32596 -2.23141 36.1206 -4.01836 5.81964 36.6413 -3.89668 
-2.31652 37.8659 -2.74837 -2.47135 38.4246 -3.93777 2.91407 37.7478 -3.18051 
5.87828 38.862 -3.83895 -2.28429 39.0813 -4.163 3.03651 38.6344 -2.76794 
-5.69525 39.4656 -3.41156 -2.25428 40.4947 -3.22933 -2.13542 40.4486 -3.84439 
5.97798 40.7374 -3.7009 3.37296 40.8245 -3.03633 -3.84754 41.7691 -3.83537 
5.1564 41.7384 -2.68463 5.87769 42.327 -3.75345 -5.6986 42.8693 -3.40855 
5.66006 43.4199 -4.11312 -5.55822 43.355 -3.4108 5.89641 44.4032 -3.84669 
5.95692 45.0337 -3.86288 -4.0811 45.9461 -3.73589 -3.64166 30.0546 -2.57137 
-4.48265 30.54 -2.69089 5.72467 33.4319 -3.94463 0.815678 34.5778 -2.88771 
-2.31084 36.7679 -3.66051 -6.09497 36.8617 -2.7734 6.01881 39.6739 -3.74292 
5.92059 40.1383 -3.70007 -5.83852 39.8932 -2.84208 3.08233 39.9955 -2.63042 
-5.86899 40.2179 -2.94255 -2.44572 40.818 -3.30647 5.9462 41.7202 -3.70468 
-3.88554 42.5938 -3.92227 5.07314 42.3797 -3.02207 -5.76081 42.1381 -3.11102 
-4.22771 43.5251 -3.22863 5.95291 43.9281 -3.66381 5.27493 43.4215 -2.8212 
-4.07835 44.3823 -3.65456 6.08976 44.5805 -3.4626 -5.94619 44.41 -2.73399 
-4.16465 45.0439 -3.59872 5.97551 45.3517 -3.72532 -5.92045 45.3387 -2.7916 
5.44329 45.4785 -2.85001 5.34065 45.9018 -3.64777 -4.92918 45.9492 -3.09038 
3.44036 30.1572 -3.69984 3.77426 30.3875 -3.95298 4.45709 30.882 -3.8422 
4.94495 31.3609 -3.79429 5.80669 32.7051 -3.65019 -5.52108 32.2889 -2.82857 
-5.97816 34.2596 -2.83367 -6.04462 34.8383 -2.57042 -6.06638 35.1776 -2.65244 
-5.98583 36.0468 -2.86646 -5.88951 37.3675 -2.77268 2.96533 37.3525 -2.70251 
6.18125 38.8789 -3.27726 -5.84717 38.9727 -2.91094 -5.91513 41.0086 -2.81715 
-4.07349 41.2589 -3.02406 4.74571 41.3333 -2.76512 -6.05642 41.5644 -2.57565 
-4.0295 43.1202 -3.66217 -6.1131 42.5367 -2.61669 -5.97751 43.4727 -2.79276 
-4.61022 45.8707 -2.99484 5.23881 44.8357 -2.79273 5.38112 45.8402 -2.96505 
-0.0815964 30.1431 -2.98276 -5.02865 31.2003 -2.80125 -5.60044 32.0144 -2.63115 
-5.84095 32.9835 -2.82664 6.2113 33.8088 -3.02826 -6.22405 33.7489 -1.91766 
-1.30455 34.9865 -3.24199 1.49467 35.1797 -2.66098 -2.02507 35.5287 -3.02848 
6.32258 35.7798 -3.06694 1.92825 35.481 -2.8146 6.18526 37.4219 -3.22119 
6.30238 40.9354 -3.04659 -4.85806 45.9184 -2.65246 -5.62363 45.9586 -2.11533 
0.0590611 29.7033 -2.65149 -1.30224 30.0363 -2.91887 3.73068 30.0473 -2.54736 
-4.42085 30.2111 -1.94065 4.84043 30.4746 -2.83363 -5.42994 31.0764 -1.7828 
6.33146 32.9124 -2.68933 -0.572701 34.6101 -2.57837 -6.38244 34.3343 -1.78836 
[...]
CELL_DATA 3999
SCALARS Patch int
LOOKUP_TABLE default
0 0 0 0 0 0 0 0 0 
0 0 0 0 0 0 0 0 0 
0 0 0 0 0 0 0 0 0 
0 0 0 0 0 0 0 0 0 
0 0 0 0 0 0 0 0 0 
0 0 0 0 0 0 0 0 0 
0 0 0 0 0 0 0 0 0 
0 0 0 0 0 0 0 0 0 
0 0 0 0 0 0 0 0 0 
0 0 0 0 0 0 0 0 0 
0 0 0 0 0 0 0 0 0 
0 0 0 0 0 0 0 0 0 
0 0 0 0 0 0 0 0 0 
0 0 0 0 0 0 0 0 0 
0 0 0 0 0 0 0 0 0 
0 0 0 0 0 0 0 0 0 
0 0 0 0 0 0 0 0 0 
0 0 0 0 0 0 0 0 0 
0 0 0 0 0 0 0 0 0 
0 0 0 0 0 0 0 0 0 
0 0 0 0 0 0 0 0 0 
0 0 0 0 0 0 0 0 0 
0 0 0 0 0 0 0 0 0 
0 0 0 0 0 0 0 0 0 
0 0 0 0 0 0 0 0 0 
0 0 0 0 0 0 0 0 0 
0 0 0 0 0 0 0 0 0 
0 0 0 0 0 0 0 0 0 
0 0 0 0 0 0 0 0 0 
0 0 0 0 0 0 0 0 0 
0 0 0 0 0 0 0 0 0 
0 0 0 0 0 0 0 0 0 
0 0 0 0 0 0 0 0 0 
0 0 0 0 0 0 0 0 0 
0 0 0 0 0 0 0 0 0 
0 0 0 0 0 0 0 0 0 
0 0 0 0 0 0 0 0 0 
0 0 0 0 0 0 0 0 0 
0 0 0 0 0 0 0 0 0 
0 0 0 0 0 0 0 0 0 
0 0 0 0 0 0 0 0 0 
0 0 0 0 0 0 0 0 0 
0 0 0 0 0 0 0 0 0 
0 0 0 0 0 0 0 0 0 
0 0 0 0 0 0 0 0 0 
0 0 0 0 0 0 0 0 0 
0 0 0 0 0 0 0 0 0 
0 0 0 0 0 0 0 0 0 
0 0 0 0 0 0 0 0 0 
0 0 0 0 0 0 0 0 0 
0 0 0 0 0 0 0 0 0 
0 0 0 0 0 0 0 0 0 
0 0 0 0 0 0 0 0 0 
0 0 0 0 0 0 0 0 0 
0 0 0 0 0 0 0 0 0 
0 0 0 0 0 0 0 0 0 
0 0 0 0 0 0 0 0 0 
0 0 0 0 0 0 0 0 0 
0 0 0 0 0 0 0 0 0 
0 0 0 0 0 0 0 0 0 
0 0 0 0 0 0 0 0 0 
0 0 0 0 0 0 0 0 0 
0 0 0 0 0 0 0 0 0 
0 0 0 0 0 0 0 0 0 
0 0 0 0 0 0 0 0 0 
0 0 0 0 0 0 0 0 0 
0 0 0 0 0 0 0 0 0 
0 0 0 0 0 0 0 0 0 
0 0 0 0 0 0 0 0 0 
0 0 0 0 0 0 0 0 0 
0 0 0 0 0 0 0 0 0 
0 0 0 0 0 0 0 0 0 
0 0 0 0 0 0 0 0 0 
0 0 0 0 0 0 0 0 0 
0 0 0 0 0 0 0 0 0 
0 0 0 0 0 0 0 0 0 
0 0 0 0 0 0 0 0 0 
0 0 0 0 0 0 0 0 0 
0 0 0 0 0 0 0 0 0 
0 0 0 0 0 0 0 0 0 
0 0 0 0 0 0 0 0 0 
0 0 0 0 0 0 0 0 0 
0 0 0 0 0 0 0 0 0 
0 0 0 0 0 0 0 0 0 
0 0 0 0 0 0 0 0 0 
0 0 0 0 0 0 0 0 0 
0 0 0 0 0 0 0 0 0 
0 0 0 0 0 0 0 0 0 
0 0 0 0 0 0 0 0 0 
0 0 0 0 0 0 0 0 0 
0 0 0 0 0 0 0 0 0 
0 0 0 0 0 0 0 0 0 
0 0 0 0 0 0 0 0 0 
0 0 0 0 0 0 0 0 0 
0 0 0 0 0 0 0 0 0 
0 0 0 0 0 0 0 0 0 
0 0 0 0 0 0 0 0 0 
0 0 0 0 0 0 0 0 0 
0 0 0 0 0 0 0 0 0 
0 0 0 0 0 0 0 0 0 
0 0 0 0 0 0 0 0 0 
0 0 0 0 0 0 0 0 0 
0 0 0 0 0 0 0 0 0 
0 0 0 0 0 0 0 0 0 
0 0 0 0 0 0 0 0 0 
0 0 0 0 0 0 0 0 0 
0 0 0 0 0 0 0 0 0 
0 0 0 0 0 0 0 0 0 
0 0 0 0 0 0 0 0 0 
0 0 0 0 0 0 0 0 0 
0 0 0 0 0 0 0 0 0 
0 0 0 0 0 0 0 0 0 
0 0 0 0 0 0 0 0 0 
0 0 0 0 0 0 0 0 0 
0 0 0 0 0 0 0 0 0 
0 0 0 0 0 0 0 0 0 
0 0 0 0 0 0 0 0 0 
0 0 0 0 0 0 0 0 0 
0 0 0 0 0 0 0 0 0 
0 0 0 0 0 0 0 0 0 
0 0 0 0 0 0 0 0 0 
0 0 0 0 0 0 0 0 0 
0 0 0 0 0 0 0 0 0 
0 0 0 0 0 0 0 0 0 
0 0 0 0 0 0 0 0 0 
0 0 0 0 0 0 0 0 0 
0 0 0 0 0 0 0 0 0 
0 0 0 0 0 0 0 0 0 
0 0 0 0 0 0 0 0 0 
0 0 0 0 0 0 0 0 0 
0 0 0 0 0 0 0 0 0 
0 0 0 0 0 0 0 0 0 
0 0 0 0 0 0 0 0 0 
0 0 0 0 0 0 0 0 0 
0 0 0 0 0 0 0 0 0 
0 0 0 0 0 0 0 0 0 
0 0 0 0 0 0 0 0 0 
0 0 0 0 0 0 0 0 0 
0 0 0 0 0 0 0 0 0 
0 0 0 0 0 0 0 0 0 
0 0 0 0 0 0 0 0 0 
0 0 0 0 0 0 0 0 0 
0 0 0 0 0 0 0 0 0 
0 0 0 0 0 0 0 0 0 
0 0 0 0 0 0 0 0 0 
0 0 0 0 0 0 0 0 0 
0 0 0 0 0 0 0 0 0 
0 0 0 0 0 0 0 0 0 
0 0 0 0 0 0 0 0 0 
0 0 0 0 0 0 0 0 0 
0 0 0 0 0 0 0 0 0 
0 0 0 0 0 0 0 0 0 
0 0 0 0 0 0 0 0 0 
0 0 0 0 0 0 0 0 0 
0 0 0 0 0 0 0 0 0 
0 0 0 0 0 0 0 0 0 
0 0 0 0 0 0 0 0 0 
0 0 0 0 0 0 0 0 0 
0 0 0 0 0 0 0 0 0 
0 0 0 0 0 0 0 0 0 
0 0 0 0 0 0 0 0 0 
0 0 0 0 0 0 0 0 0 
0 0 0 0 0 0 0 0 0 
0 0 0 0 0 0 0 0 0 
0 0 0 0 0 0 0 0 0 
0 0 0 0 0 0 1 1 1 
1 1 1 1 1 1 1 1 1 
1 1 1 1 1 1 1 1 1 
1 1 1 1 1 1 1 1 1 
1 1 1 1 1 1 1 1 1 
1 1 1 1 1 1 1 1 1 
1 1 1 1 1 1 1 1 1 
1 1 1 1 1 1 1 1 1 
1 1 1 1 1 1 1 1 1 
1 1 1 1 1 1 1 1 1 
1 1 1 1 1 1 1 1 1 
1 1 1 1 1 1 1 1 1 
1 1 1 1 1 1 1 1 1 
1 1 1 1 1 1 1 1 1 
1 1 1 1 1 1 1 1 1 
1 1 1 1 1 1 1 1 1 
1 1 1 1 1 1 1 1 1 
1 1 1 1 1 1 1 1 1 
1 1 1 1 1 1 1 1 1 
1 1 1 1 1 1 1 1 1 
1 1 1 1 1 1 1 1 1 
1 1 1 1 1 1 1 1 1 
1 1 1 1 1 1 1 1 1 
1 1 1 1 1 1 1 1 1 
1 1 1 1 1 1 1 1 1 
1 1 1 1 1 1 1 1 1 
1 1 1 1 1 1 1 1 1 
1 1 1 1 1 1 1 1 1 
1 1 1 1 1 1 1 1 1 
1 1 1 1 1 1 1 1 1 
1 1 1 1 1 1 1 1 1 
1 1 1 1 1 1 1 1 1 
1 1 1 1 1 1 1 1 1 
1 1 1 1 1 1 1 1 1 
1 1 1 1 1 1 1 1 1 
1 1 1 1 1 1 1 1 1 
1 1 1 1 1 1 1 1 1 
1 1 1 1 1 1 1 1 1 
1 1 1 1 1 1 1 1 1 
1 1 1 1 1 1 1 1 1 
1 1 1 1 1 1 1 1 1 
1 1 1 1 1 1 1 1 1 
1 1 1 1 1 1 1 1 1 
1 1 1 1 1 1 1 1 1 
1 1 1 1 1 1 1 1 1 
1 1 1 1 1 1 1 1 1 
1 1 1 1 1 1 1 1 1 
1 1 1 1 1 1 1 1 1 
1 1 1 1 1 1 1 1 1 
1 1 1 1 1 1 1 1 1 
1 1 1 1 1 1 1 1 1 
1 1 1 1 1 1 1 1 1 
1 1 1 1 1 1 1 1 1 
1 1 1 1 1 1 1 1 1 
1 1 1 1 1 1 1 1 1 
1 1 1 1 1 1 1 1 1 
1 1 1 1 1 1 1 1 1 
1 1 1 1 1 1 1 1 1 
1 1 1 1 1 1 1 1 1 
1 1 1 1 1 1 1 1 1 
1 1 1 1 1 1 1 1 1 
1 1 1 1 1 1 1 1 1 
1 1 1 1 1 1 1 1 1 
1 1 1 1 1 1 1 1 1 
1 1 1 1 1 1 1 1 1 
1 1 1 1 1 1 1 1 1 
1 1 1 1 1 1 1 1 1 
1 1 1 1 1 1 1 1 1 
1 1 1 1 1 1 1 1 1 
1 1 1 1 1 1 1 1 1 
1 1 1 1 1 1 1 1 1 
1 1 1 1 1 1 1 1 1 
1 1 1 1 1 1 1 1 1 
1 1 1 1 1 1 1 1 1 
1 1 1 1 1 1 1 1 1 
1 1 1 1 1 1 1 1 1 
1 1 1 1 1 1 1 1 1 
1 1 1 1 1 1 1 1 1 
1 1 1 1 1 1 1 1 1 
1 1 1 1 1 1 1 1 1 
1 1 1 1 1 1 1 1 1 
1 1 1 1 1 1 1 1 1 
1 1 1 1 1 1 1 1 1 
1 1 1 1 1 1 1 1 1 
1 1 1 1 1 1 1 1 1 
1 1 1 1 1 1 1 1 1 
1 1 1 1 1 1 1 1 1 
1 1 1 1 1 1 1 1 1 
1 1 1 1 1 1 1 1 1 
1 1 1 1 1 1 1 1 1 
1 1 1 1 1 1 1 1 1 
1 1 1 1 1 1 1 1 1 
1 1 1 1 1 1 1 1 1 
1 1 1 1 1 1 1 1 1 
1 1 1 1 1 1 1 1 1 
1 1 1 1 1 1 1 1 1 
1 1 1 1 1 1 1 1 1 
1 1 1 1 1 1 1 1 1 
1 1 1 1 1 1 1 1 1 
1 1 1 1 1 1 1 1 1 
1 1 1 1 1 1 1 1 1 
1 1 1 1 1 1 1 1 1 
1 1 1 1 1 1 1 1 1 
1 1 1 1 1 1 1 1 1 
1 1 1 1 1 1 1 1 1 
1 1 1 1 1 1 1 1 1 
1 1 1 1 1 1 1 1 1 
1 1 1 1 1 1 1 1 1 
1 1 1 1 1 1 1 1 1 
1 1 1 1 1 1 1 1 1 
1 1 1 1 1 1 1 1 1 
1 1 1 1 1 1 1 1 1 
1 1 1 1 1 1 1 1 1 
1 1 1 1 1 1 1 1 1 
1 1 1 1 1 1 1 1 1 
1 1 1 1 1 1 1 1 1 
1 1 1 1 1 1 1 1 1 
1 1 1 1 1 1 1 1 1 
1 1 1 1 1 1 1 1 1 
1 1 1 1 1 1 1 1 1 
1 1 1 1 1 1 1 1 1 
1 1 1 1 1 1 1 1 1 
1 1 1 1 1 1 1 1 1 
1 1 1 1 1 1 1 1 1 
1 1 1 1 1 1 1 1 1 
1 1 1 1 1 1 1 1 1 
1 1 1 1 1 1 1 1 1 
1 1 1 1 1 1 1 1 1 
1 1 1 1 1 1 1 1 1 
1 1 1 1 1 1 1 1 1 
1 1 1 1 1 1 1 1 1 
1 1 1 1 1 1 1 1 1 
1 1 1 1 1 1 1 1 1 
1 1 1 1 1 1 1 1 1 
1 1 1 1 1 1 1 1 1 
1 1 1 1 1 1 1 1 1 
1 1 1 1 1 1 1 1 1 
1 1 1 1 1 1 1 1 1 
1 1 1 1 1 1 1 1 1 
1 1 1 1 1 1 1 1 1 
1 1 1 1 1 1 1 1 1 
1 1 1 1 1 1 1 1 1 
1 1 1 1 1 1 1 1 1 
1 1 1 1 1 1 1 1 1 
1 1 1 1 1 1 1 1 1 
1 1 1 1 1 1 1 1 1 
1 1 1 1 1 1 1 1 1 
1 1 1 1 1 1 1 1 1 
1 1 1 1 1 1 1 1 1 
1 1 1 1 1 1 1 1 1 
1 1 1 1 1 1 1 1 1 
1 1 1 1 1 1 1 1 1 
1 1 1 1 1 1 1 1 1 
1 1 1 1 1 1 1 1 1 
1 1 1 1 1 1 1 1 1 
1 1 1 1 1 1 1 1 1 
1 1 1 1 1 1 1 1 1 
1 1 1 1 1 1 1 1 1 
1 1 1 1 1 1 1 1 1 
1 1 1 1 1 1 1 1 1 
1 1 1 1 1 1 1 1 1 
1 1 1 1 1 1 1 1 1 
1 1 1 1 1 1 1 1 1 
1 1 1 1 1 1 1 1 1 
1 1 1 1 1 1 1 1 1 
1 1 1 1 1 1 1 1 1 
1 1 1 1 1 1 1 1 1 
1 1 1 1 1 1 1 1 1 
1 1 1 1 1 1 1 1 1 
1 1 1 1 1 1 1 1 1 
1 1 1 1 1 1 1 1 1 
1 1 1 1 1 1 1 1 1 
1 1 1 1 1 1 1 1 1 
1 1 1 1 1 1 1 1 1 
1 1 1 1 1 1 1 1 1 
1 1 1 1 1 1 1 1 1 
1 1 1 1 1 1 1 1 1 
1 1 1 1 1 1 1 1 1 
1 1 1 1 1 1 1 1 1 
1 1 1 1 1 1 1 1 1 
1 1 1 1 1 1 1 1 1 
1 1 1 1 1 1 1 1 1 
1 1 1 1 1 1 1 1 1 
1 1 1 1 1 1 1 1 1 
1 1 1 1 1 1 1 1 1 
1 1 1 1 1 1 1 1 1 
1 1 1 1 1 1 1 1 1 
1 1 1 1 1 1 1 1 1 
1 1 1 1 1 1 1 1 1 
1 1 1 1 1 1 1 1 1 
1 1 1 1 1 1 1 1 1 
1 1 1 1 1 1 1 1 1 
1 1 1 1 1 1 1 1 1 
1 1 1 1 1 1 1 1 1 
1 1 1 1 1 1 1 1 1 
1 1 1 1 1 1 1 1 1 
1 1 1 1 1 1 1 1 1 
1 1 1 1 1 1 1 1 1 
1 1 1 1 1 1 1 1 1 
1 1 1 1 1 1 1 1 1 
1 1 1 1 1 1 1 1 1 
1 1 1 1 1 1 1 1 1 
1 1 1 1 1 1 1 1 1 
1 1 1 1 1 1 1 1 1 
1 1 1 1 1 1 1 1 1 
1 1 1 1 1 1 1 1 1 
1 1 1 1 1 1 1 1 1 
1 1 1 1 1 1 1 1 1 
1 1 1 1 1 1 1 1 1 
1 1 1 1 1 1 1 1 1 
1 1 1 1 1 1 1 1 1 
1 1 1 1 1 1 1 1 1 
1 1 1 1 1 1 1 1 1 
1 1 1 1 1 1 1 1 1 
1 1 1 1 1 1 1 1 1 
1 1 1 1 1 1 1 1 1 
1 1 1 1 1 1 1 1 1 
1 1 1 1 1 1 1 1 1 
1 1 1 1 1 1 1 1 1 
1 1 1 1 1 1 1 1 1 
1 1 1 1 1 1 1 1 1 
1 1 1 1 1 1 1 1 1 
1 1 1 1 1 1 1 1 1 
1 1 1 1 1 1 1 1 1 
1 1 1 1 1 1 1 1 1 
1 1 1 1 1 1 1 1 1 
1 1 1 1 1 1 1 1 1 
1 1 1 1 1 1 1 1 1 
1 1 1 1 1 1 1 1 1 
1 1 1 1 1 1 1 1 1 
1 1 1 1 1 1 1 1 1 
1 1 1 1 1 1 1 1 1 
1 1 1 1 1 1 1 1 1 
1 1 1 1 1 1 1 1 1 
1 1 1 1 1 1 1 1 1 
1 1 1 1 1 1 1 1 1 
1 1 1 1 1 1 1 1 1 
1 1 1 1 1 1 1 1 1 
1 1 1 1 1 1 1 1 1 
1 1 1 1 1 1 1 1 1 
1 1 1 1 1 1 1 1 1 
1 1 1 1 1 1 1 1 1 
1 1 1 1 1 1 1 1 1 
1 1 1 1 1 1 1 1 1 
1 1 1 1 1 1 1 1 1 
1 1 1 1 1 1 1 1 1 
1 1 1 1 1 1 1 1 1 
1 1 1 1 1 1 1 1 1 
1 1 1 1 1 1 1 1 1 
1 1 1 1 1 1 1 1 1 
1 1 1 1 1 1 1 1 1 
1 1 1 1 1 1 1 1 1 
1 1 1 1 1 1 1 1 1 
1 1 1 1 1 1 1 1 1 
1 1 1 1 1 1 1 1 1 
1 1 1 1 1 1 1 1 1 
1 1 1 1 1 1 1 1 1 
1 1 1 1 1 1 1 1 1 
1 1 1 1 1 1 1 1 1 
1 1 1 1 1 1 1 1 1 
1 1 1 1 1 1 1 1 1 
1 1 1 1 1 1 1 1 1 
1 1 1 1 1 1 1 1 1 
1 1 1 1 1 1 1 1 1 
1 1 1 1 1 1 1 1 1 
1 1 1 1 1 1 1 1 1 
1 1 1 1 1 1 1 1 1 
1 1 1 1 1 1 1 1 1 
1 1 1 1 1 1 1 1 1 
1 1 1 1 1 1 1 1 1 
1 1 1 1 1 1 1 1 1 
1 1 1 1 1 1 1 1 1 
1 1 1 1 1 1 1 1 1 
1 1 1 1 1 1 1 1 1 
1 1 1 1 1 1 1 1 1 
1 1 1 1 1 1 1 1 1 
1 1 1 2 2 2 2 2 2 
2 2 2 2 2 2 2 2 2 
2 2 2 2 2 2 2 2 2 
2 2 2 
NORMALS Normals float
-0.267651 -0.268198 -0.925437 0.00952997 -0.0444881 -0.998964 0.0786089 0.144506 -0.986377 
-0.138585 -0.112755 -0.983911 -0.065388 0.048958 -0.996658 0.113064 0.192122 -0.974836 
-0.00159092 -0.274681 -0.961534 0.265446 0.037315 -0.963403 -0.25133 0.0426254 -0.966962 
-0.217714 0.063003 -0.973977 -0.0107219 -0.182947 -0.983064 -0.351119 -0.309709 -0.883627 
0.0870529 0.05127 -0.994883 0.108793 0.0774873 -0.99104 -0.221633 0.433337 -0.873555 
-0.130735 -0.182105 -0.974549 0.146909 0.00629887 -0.98913 -0.194595 -0.615002 -0.764137 
0.0838997 -0.29143 -0.952906 0.13857 0.055349 -0.988805 0.313181 0.415661 -0.853899 
-0.26284 0.0793808 -0.961568 -0.270248 0.0924796 -0.958339 0.0171811 0.428031 -0.903601 
-0.049536 -0.511299 -0.857974 -0.0252655 -0.214712 -0.976351 -0.130853 0.201758 -0.970655 
0.298223 0.381067 -0.875129 -0.0310239 0.13742 -0.990027 0.268532 0.46458 -0.843834 
0.292648 0.424599 -0.85678 -0.0822882 -0.555758 -0.827262 -0.119066 0.27867 -0.952978 
-0.167339 0.41033 -0.896452 0.17989 -0.056301 -0.982074 -0.107254 -0.106667 -0.988493 
0.0577008 0.00806021 -0.998301 0.0632854 -0.498603 -0.864517 -0.288533 -0.34116 -0.894628 
0.300188 -0.0161754 -0.953743 -0.322636 -0.00931043 -0.946477 -0.281934 0.166659 -0.944848 
0.332431 0.347244 -0.876876 0.0100394 0.481202 -0.876552 -0.194237 -0.588387 -0.784903 
0.12122 -0.428387 -0.895427 0.156804 -0.432878 -0.88771 0.2999 -0.272848 -0.914119 
-0.325226 -0.544037 -0.773468 -0.307817 0.10984 -0.945084 0.0467305 0.495138 -0.867557 
-0.100369 0.475249 -0.874108 0.0339642 -0.54106 -0.840298 0.255992 -0.543979 -0.799097 
0.0252171 -0.547078 -0.836702 -0.365978 -0.578255 -0.729165 -0.330132 -0.607176 -0.722738 
0.39883 0.347081 -0.848805 0.513099 0.599869 -0.613911 -0.450413 0.43595 -0.77915 
-0.307075 0.702915 -0.641573 0.0398782 0.723223 -0.689462 0.0312599 0.731569 -0.681051 
-0.171859 -0.76496 -0.620726 -0.0956339 -0.720051 -0.6873 0.231823 -0.669855 -0.705374 
-0.451379 -0.417027 -0.788888 0.311475 0.59565 -0.740395 -0.173556 0.697149 -0.695602 
0.284177 0.663116 -0.692474 0.0197122 -0.702935 -0.710981 -0.326465 -0.636834 -0.698472 
-0.103154 -0.598168 -0.794704 -0.42676 -0.609851 -0.6678 0.465938 0.0409507 -0.883869 
0.562696 0.308164 -0.767078 0.242046 0.635324 -0.733333 0.093853 0.681197 -0.726059 
0.252184 0.380936 -0.889546 -0.040493 -0.651581 -0.757497 0.0146934 -0.597645 -0.801626 
0.407036 -0.564237 -0.718302 0.401443 -0.331287 -0.853869 -0.501866 -0.553329 -0.6648 
-0.219589 0.728756 -0.648611 0.100979 0.79336 -0.600319 0.260535 0.670427 -0.69473 
-0.100921 -0.800205 -0.591174 0.311979 -0.63759 -0.704378 -0.294464 -0.620499 -0.726823 
-0.576149 -0.627106 -0.524205 0.255316 0.375546 -0.890943 -0.257298 0.307095 -0.916237 
0.250923 0.605416 -0.755321 -0.183266 0.587431 -0.78825 -0.151151 0.608679 -0.778886 
0.17123 0.670257 -0.722105 -0.143387 -0.709668 -0.689791 -0.203325 -0.652799 -0.729735 
0.263797 -0.648625 -0.71393 0.273872 -0.650323 -0.708572 0.556847 -0.26424 -0.787463 
0.342355 0.738112 -0.581364 0.394107 0.756387 -0.522072 0.0849643 0.794876 -0.600794 
-0.254264 0.731024 -0.633209 0.155109 0.724241 -0.671875 -0.024848 -0.543545 -0.839012 
0.215416 -0.561235 -0.799131 0.472723 0.0983839 -0.875702 -0.593751 -0.320794 -0.737937 
0.305189 0.690832 -0.655447 -0.18871 0.764275 -0.616663 -0.103619 0.706721 -0.699864 
0.160905 0.755603 -0.634959 -0.0172453 -0.741574 -0.670649 -0.267128 -0.71164 -0.649778 
-0.186454 -0.699647 -0.689732 0.199517 -0.627715 -0.752441 0.34416 -0.608041 -0.71543 
-0.34532 -0.667025 -0.660175 0.464966 0.436369 -0.770317 0.197483 0.751402 -0.629599 
-0.14728 0.687036 -0.71154 0.275057 0.684287 -0.675348 -0.160575 0.679466 -0.71592 
-0.0448058 -0.369284 -0.928236 0.141234 -0.62958 -0.763991 0.371622 0.641251 -0.671338 
-0.415458 0.158026 -0.895781 -0.107279 0.697445 -0.708563 0.291851 0.670245 -0.682345 
0.0526124 0.806535 -0.588841 -0.0386446 -0.791724 -0.609655 0.278805 -0.534414 -0.797916 
-0.351653 -0.671999 -0.651735 -0.414824 0.372286 -0.830255 0.599556 0.311811 -0.737094 
0.168842 0.641273 -0.748506 0.0610285 0.692312 -0.719013 -0.37249 0.60616 -0.702724 
-0.0202329 0.625791 -0.779729 0.0626735 -0.635074 -0.769904 0.228352 -0.746142 -0.625402 
-0.311892 -0.73274 -0.604827 -0.386421 -0.678497 -0.624757 0.522333 -0.30126 -0.797754 
0.431432 0.486223 -0.759904 0.598225 0.504787 -0.622347 -0.449797 0.584862 -0.674996 
0.00212949 0.595908 -0.80305 0.228185 0.70813 -0.668195 -0.279325 0.7379 -0.614395 
0.177725 0.0299597 -0.983624 -0.157543 -0.663699 -0.731221 0.256403 -0.763554 -0.592658 
0.564774 -0.467815 -0.679838 -0.468638 -0.644433 -0.604222 0.405688 0.638442 -0.654071 
-0.527982 0.112282 -0.8418 0.471918 0.566595 -0.675472 0.139379 0.55058 -0.823064 
-0.157405 0.59305 -0.78963 -0.412884 -0.0443329 -0.909704 0.18623 0.289971 -0.938741 
0.147792 -0.187074 -0.971165 -0.340018 -0.33289 -0.87953 -0.546182 -0.64229 -0.537725 
0.561473 0.642168 -0.52189 -0.685659 0.201178 -0.699571 0.673729 0.519284 -0.525769 
0.426713 0.556276 -0.713073 -0.289296 0.671604 -0.682096 -0.0517735 0.0840832 -0.995113 
-0.073855 0.0607879 -0.995415 0.0249282 -0.172126 -0.984759 0.325974 -0.688837 -0.647491 
-0.395305 -0.698605 -0.596393 -0.513459 -0.562913 -0.647679 -0.575032 -0.542726 -0.612199 
0.543022 0.644896 -0.537808 0.0867571 0.422141 -0.902369 -0.547405 0.598982 -0.584439 
-0.128381 0.671699 -0.729615 -0.466983 0.0742472 -0.881144 0.139756 -0.0136075 -0.990092 
-0.0245922 -0.214333 -0.976451 0.338603 -0.629989 -0.6989 -0.535675 -0.64836 -0.541 
0.51851 0.621034 -0.587761 0.444371 0.679083 -0.584278 -0.579895 0.476546 -0.660777 
-0.201392 0.718293 -0.665956 -0.0868917 0.00803151 -0.996185 -0.277495 -0.252671 -0.926906 
-0.0805635 -0.00624523 -0.99673 0.442661 -0.593168 -0.672461 -0.511445 -0.673534 -0.533644 
0.562957 0.618262 -0.548481 0.410359 0.722047 -0.557004 -0.434753 0.820531 -0.371104 
0.00229139 0.0477887 -0.998855 -0.190021 0.222414 -0.956255 -0.0184052 0.0382734 -0.999098 
-0.195571 -0.360276 -0.912115 0.0573454 -0.114416 -0.991776 0.154863 -0.614957 -0.773205 
-0.539622 -0.605553 -0.584905 0.68863 0.0871173 -0.719861 -0.454029 -0.653544 -0.605589 
0.670934 0.505371 -0.542631 -0.686492 -0.222855 -0.692145 0.507237 0.672381 -0.539087 
0.080221 0.0429499 -0.995851 -0.00716583 -0.0288459 -0.999558 0.301186 -0.679678 -0.668823 
0.639717 -0.177603 -0.747809 -0.404676 -0.737405 -0.540806 -0.524513 -0.668809 -0.52686 
-0.634459 -0.331121 -0.698442 -0.711928 -0.0360913 -0.701325 -0.340289 0.772129 -0.536676 
0.00780825 0.0675537 -0.997685 0.103683 -0.0796667 -0.991415 0.014566 -0.498472 -0.866783 
0.315366 -0.634664 -0.705511 -0.493167 -0.648578 -0.57977 -0.388902 -0.73275 -0.55842 
0.649871 0.329191 -0.685056 -0.692983 0.209414 -0.68987 0.494253 0.747833 -0.443238 
-0.623123 0.432662 -0.651553 -0.387694 0.724293 -0.570169 0.0537321 0.158397 -0.985912 
0.176798 -0.0384449 -0.983496 -0.00486006 -0.324308 -0.945939 0.435878 -0.672646 -0.597962 
-0.514887 -0.676317 -0.526769 -0.55967 0.587436 -0.584541 -0.362699 0.677782 -0.639579 
-0.300184 0.641544 -0.705912 0.182149 -0.0825877 -0.979796 0.0633615 0.022264 -0.997742 
0.295111 -0.580924 -0.758576 0.488596 -0.516694 -0.703066 -0.357444 -0.651368 -0.669293 
-0.392522 -0.627874 -0.672087 0.481366 0.676986 -0.556756 -0.48179 0.53227 -0.696109 
-0.30434 0.768159 -0.563302 0.0174416 -0.00139359 -0.999847 -0.0236418 0.085548 -0.996054 
0.165718 0.161089 -0.972927 -0.0933709 0.144201 -0.985133 -0.218155 -0.166864 -0.961543 
0.168194 -0.343076 -0.924126 0.250263 -0.32484 -0.912057 0.49371 -0.269235 -0.8269 
0.127933 -0.525841 -0.840907 -0.407013 -0.679649 -0.61026 -0.494905 -0.633476 -0.594792 
0.587309 -0.00877148 -0.809315 -0.65104 -0.29473 -0.699487 0.526266 0.377356 -0.762002 
0.562513 0.327155 -0.759308 0.245295 -0.0597352 -0.967606 -0.0326162 0.0475832 -0.998335 
-0.190796 -0.127174 -0.973357 0.0602488 -0.281194 -0.957758 0.716842 -0.0884992 -0.691596 
-0.663423 0.045894 -0.746836 -0.51059 0.548005 -0.662562 -0.43725 0.0365434 -0.898597 
-0.0177589 0.252633 -0.967399 0.215545 0.054926 -0.974948 -0.369886 -0.885621 -0.280819 
0.231881 -0.744596 -0.625945 0.522404 -0.596072 -0.609748 -0.528892 -0.650004 -0.545681 
-0.572348 -0.610772 -0.547152 0.766717 0.267411 -0.58364 0.629317 0.518555 -0.578845 
-0.589655 0.378533 -0.713456 -0.444017 0.703534 -0.554878 0.385627 0.0182051 -0.922475 
0.415036 -0.458964 -0.785555 -0.539357 -0.0292356 -0.84157 0.428335 -0.623922 -0.653644 
-0.695754 -0.488958 -0.526162 0.618475 0.394871 -0.679386 -0.459956 0.176117 -0.870301 
-0.337132 0.367545 -0.866748 0.474514 0.00321117 -0.880242 0.442068 -0.0207125 -0.896742 
-0.332887 -0.096693 -0.937996 0.289079 -0.458045 -0.840612 -0.474121 -0.37641 -0.795943 
0.677572 0.189054 -0.710742 0.535028 0.404183 -0.741877 0.551651 0.348855 -0.757615 
0.388889 -0.0448213 -0.920194 -0.454624 0.607226 -0.651608 0.423231 -0.379688 -0.822625 
0.290438 -0.493288 -0.819947 -0.546127 -0.250132 -0.799487 -0.199366 -0.453937 -0.868444 
-0.521855 -0.519248 -0.676793 -0.601314 0.0121567 -0.79892 -0.764544 -0.198343 -0.613296 
-0.523266 0.604663 -0.600479 -0.419426 0.700279 -0.57766 0.39991 -0.273795 -0.874705 
0.538953 -0.15375 -0.828185 -0.551482 -0.0744536 -0.830858 -0.531312 -0.453096 -0.715829 
0.445081 -0.502462 -0.741238 -0.676418 -0.090464 -0.730941 -0.275616 0.577877 -0.768176 
0.311067 0.161799 -0.936514 -0.5005 0.197427 -0.842925 0.461903 -0.0769323 -0.883588 
0.519207 -0.449622 -0.726818 0.680932 -0.0497154 -0.730657 -0.463064 0.623064 -0.630367 
0.482019 0.105967 -0.869729 0.515907 0.0193433 -0.856426 -0.399203 0.0486951 -0.915568 
0.485905 -0.0202457 -0.873777 -0.369687 0.0199674 -0.928942 0.56617 -0.574458 -0.591143 
-0.551436 -0.679722 -0.483628 0.579019 0.653392 -0.487664 -0.326952 0.474465 -0.817303 
0.340899 0.135462 -0.930289 0.495833 -0.042281 -0.867388 -0.48493 0.152852 -0.861092 
-0.371056 -0.0686371 -0.92607 0.507423 -0.616702 -0.601831 -0.460732 -0.448244 -0.766031 
0.721484 -0.0647576 -0.689396 0.561655 0.683084 -0.466839 -0.315101 0.0348229 -0.948419 
-0.314476 0.0354377 -0.948604 0.534951 0.727999 -0.428772 0.643035 0.588509 -0.490065 
-0.294515 0.0269264 -0.955267 0.483083 0.0684057 -0.872898 -0.278664 0.0127499 -0.960304 
0.694243 0.358462 -0.624124 -0.580495 -0.668805 -0.464463 0.582094 0.616388 -0.530314 
-0.346455 0.166959 -0.923089 0.402829 0.0279582 -0.914848 0.541404 0.191109 -0.818755 
-0.486956 -0.563342 -0.667473 -0.112552 0.126201 -0.985599 0.355055 -0.259531 -0.898098 
0.0547833 -0.36855 -0.927992 -0.390641 -0.354991 -0.849341 -0.149368 -0.298916 -0.942517 
0.487626 0.0266581 -0.872646 0.170906 0.24816 -0.953524 0.174838 -0.0139277 -0.984499 
-0.574641 -0.0226141 -0.818093 -0.523769 -0.0919299 -0.846886 -0.764149 -0.0571528 -0.642503 
0.47118 -0.236417 -0.849762 -0.427988 0.645812 -0.63226 -0.417688 0.232683 -0.878291 
0.447277 -0.475653 -0.757428 -0.605368 -0.0565706 -0.793933 0.405482 -0.498566 -0.76617 
-0.638046 0.0254433 -0.769578 -0.484613 -0.690251 -0.537312 0.592443 0.124979 -0.795859 
-0.703918 -0.513557 -0.490671 0.493436 0.313549 -0.8113 0.553617 -0.37947 -0.741289 
-0.599498 0.299615 -0.742181 -0.539779 -0.223241 -0.811666 -0.774405 -0.47611 -0.416673 
-0.441113 0.520283 -0.731248 -0.575296 -0.0822784 -0.813797 0.385185 -0.504439 -0.77277 
0.581304 -0.610025 -0.538475 -0.524807 0.234823 -0.818191 0.903122 0.080784 -0.421717 
-0.685146 0.229835 -0.691195 -0.513435 0.592169 -0.621065 0.594502 -0.187709 -0.781878 